MODEL 1
REMARK VINA RESULT:    -6.367      0.000      0.000
REMARK INTER + INTRA:          -8.867
REMARK INTER:                  -8.228
REMARK INTRA:                  -0.639
REMARK UNBOUND:                -0.639
REMARK SMILES O=C(Nc1ccc(O)c(C(=O)O)c1)c1cccc(C(F)(F)F)c1
REMARK SMILES IDX 4 1 5 2 6 3 7 4 9 5 13 6 3 7 1 8 2 9 14 11 15 12 23 13 16 14
REMARK SMILES IDX 18 15 17 16 19 17 20 18 21 19 22 20 10 21 11 22 12 23 8 25
REMARK H PARENT 3 10 12 24 8 26
ROOT
ATOM      1  C   UNL     1      16.535   0.079  -5.045  1.00  0.00     0.042 A 
ATOM      2  C   UNL     1      17.121   1.304  -4.726  1.00  0.00     0.030 A 
ATOM      3  C   UNL     1      17.101   1.783  -3.412  1.00  0.00     0.049 A 
ATOM      4  C   UNL     1      16.497   1.035  -2.402  1.00  0.00     0.130 A 
ATOM      5  C   UNL     1      15.911  -0.199  -2.698  1.00  0.00     0.103 A 
ATOM      6  C   UNL     1      15.936  -0.669  -4.024  1.00  0.00     0.045 A 
ENDROOT
BRANCH   1   7
ATOM      7  N   UNL     1      16.517  -0.472  -6.344  1.00  0.00    -0.322 N 
ATOM      8  O   UNL     1      15.832   1.338  -7.651  1.00  0.00    -0.269 OA
ATOM      9  C   UNL     1      16.208   0.179  -7.526  1.00  0.00     0.255 C 
ATOM     10  H   UNL     1      16.680  -1.469  -6.399  1.00  0.00     0.170 HD
BRANCH   9  11
ATOM     11  C   UNL     1      16.316  -0.660  -8.752  1.00  0.00     0.040 A 
ATOM     12  C   UNL     1      17.259  -1.689  -8.862  1.00  0.00     0.014 A 
ATOM     13  C   UNL     1      15.466  -0.378  -9.831  1.00  0.00     0.027 A 
ATOM     14  C   UNL     1      17.334  -2.445 -10.033  1.00  0.00     0.001 A 
ATOM     15  C   UNL     1      15.529  -1.138 -11.010  1.00  0.00     0.056 A 
ATOM     16  C   UNL     1      16.474  -2.172 -11.099  1.00  0.00     0.013 A 
BRANCH  15  17
ATOM     17  C   UNL     1      14.624  -0.819 -12.175  1.00  0.00     0.416 C 
ATOM     18  F   UNL     1      15.066   0.245 -12.898  1.00  0.00    -0.166 F 
ATOM     19  F   UNL     1      14.508  -1.851 -13.057  1.00  0.00    -0.166 F 
ATOM     20  F   UNL     1      13.352  -0.514 -11.793  1.00  0.00    -0.166 F 
ENDBRANCH  15  17
ENDBRANCH   9  11
ENDBRANCH   1   7
BRANCH   5  21
ATOM     21  C   UNL     1      15.286  -1.028  -1.633  1.00  0.00     0.339 C 
ATOM     22  O   UNL     1      15.706  -1.268  -0.519  1.00  0.00    -0.246 OA
BRANCH  21  23
ATOM     23  O   UNL     1      14.107  -1.545  -2.037  1.00  0.00    -0.478 OA
ATOM     24  H   UNL     1      14.317  -2.497  -2.149  1.00  0.00     0.297 HD
ENDBRANCH  21  23
ENDBRANCH   5  21
BRANCH   4  25
ATOM     25  O   UNL     1      16.468   1.537  -1.133  1.00  0.00    -0.507 OA
ATOM     26  H   UNL     1      16.776   2.458  -1.134  1.00  0.00     0.293 HD
ENDBRANCH   4  25
TORSDOF 6
ENDMDL
MODEL 2
REMARK VINA RESULT:    -6.364     20.591     22.547
REMARK INTER + INTRA:          -8.864
REMARK INTER:                  -8.037
REMARK INTRA:                  -0.826
REMARK UNBOUND:                -0.639
REMARK SMILES O=C(Nc1ccc(O)c(C(=O)O)c1)c1cccc(C(F)(F)F)c1
REMARK SMILES IDX 4 1 5 2 6 3 7 4 9 5 13 6 3 7 1 8 2 9 14 11 15 12 23 13 16 14
REMARK SMILES IDX 18 15 17 16 19 17 20 18 21 19 22 20 10 21 11 22 12 23 8 25
REMARK H PARENT 3 10 12 24 8 26
ROOT
ATOM      1  C   UNL     1      -2.918 -10.938 -10.945  1.00  0.00     0.042 A 
ATOM      2  C   UNL     1      -4.269 -10.695 -11.196  1.00  0.00     0.030 A 
ATOM      3  C   UNL     1      -4.669 -10.021 -12.354  1.00  0.00     0.049 A 
ATOM      4  C   UNL     1      -3.718  -9.587 -13.277  1.00  0.00     0.130 A 
ATOM      5  C   UNL     1      -2.360  -9.827 -13.050  1.00  0.00     0.103 A 
ATOM      6  C   UNL     1      -1.970 -10.505 -11.880  1.00  0.00     0.045 A 
ENDROOT
BRANCH   1   7
ATOM      7  N   UNL     1      -2.436 -11.612  -9.804  1.00  0.00    -0.322 N 
ATOM      8  O   UNL     1      -3.301 -13.763 -10.083  1.00  0.00    -0.269 OA
ATOM      9  C   UNL     1      -2.625 -12.943  -9.474  1.00  0.00     0.255 C 
ATOM     10  H   UNL     1      -1.961 -11.035  -9.122  1.00  0.00     0.170 HD
BRANCH   9  11
ATOM     11  C   UNL     1      -1.956 -13.381  -8.217  1.00  0.00     0.040 A 
ATOM     12  C   UNL     1      -2.027 -14.705  -7.766  1.00  0.00     0.014 A 
ATOM     13  C   UNL     1      -1.268 -12.424  -7.457  1.00  0.00     0.027 A 
ATOM     14  C   UNL     1      -1.394 -15.072  -6.577  1.00  0.00     0.001 A 
ATOM     15  C   UNL     1      -0.622 -12.785  -6.265  1.00  0.00     0.056 A 
ATOM     16  C   UNL     1      -0.695 -14.119  -5.833  1.00  0.00     0.013 A 
BRANCH  15  17
ATOM     17  C   UNL     1       0.103 -11.748  -5.442  1.00  0.00     0.416 C 
ATOM     18  F   UNL     1       1.170 -11.219  -6.099  1.00  0.00    -0.166 F 
ATOM     19  F   UNL     1      -0.688 -10.693  -5.100  1.00  0.00    -0.166 F 
ATOM     20  F   UNL     1       0.587 -12.242  -4.270  1.00  0.00    -0.166 F 
ENDBRANCH  15  17
ENDBRANCH   9  11
ENDBRANCH   1   7
BRANCH   5  21
ATOM     21  C   UNL     1      -1.329  -9.400 -14.033  1.00  0.00     0.339 C 
ATOM     22  O   UNL     1      -0.342  -8.717 -13.846  1.00  0.00    -0.246 OA
BRANCH  21  23
ATOM     23  O   UNL     1      -1.600  -9.871 -15.269  1.00  0.00    -0.478 OA
ATOM     24  H   UNL     1      -1.223  -9.177 -15.851  1.00  0.00     0.297 HD
ENDBRANCH  21  23
ENDBRANCH   5  21
BRANCH   4  25
ATOM     25  O   UNL     1      -4.133  -8.909 -14.387  1.00  0.00    -0.507 OA
ATOM     26  H   UNL     1      -4.721  -9.469 -14.917  1.00  0.00     0.293 HD
ENDBRANCH   4  25
TORSDOF 6
ENDMDL
MODEL 3
REMARK VINA RESULT:    -5.998      1.597      2.374
REMARK INTER + INTRA:          -8.391
REMARK INTER:                  -7.589
REMARK INTRA:                  -0.802
REMARK UNBOUND:                -0.639
REMARK SMILES O=C(Nc1ccc(O)c(C(=O)O)c1)c1cccc(C(F)(F)F)c1
REMARK SMILES IDX 4 1 5 2 6 3 7 4 9 5 13 6 3 7 1 8 2 9 14 11 15 12 23 13 16 14
REMARK SMILES IDX 18 15 17 16 19 17 20 18 21 19 22 20 10 21 11 22 12 23 8 25
REMARK H PARENT 3 10 12 24 8 26
ROOT
ATOM      1  C   UNL     1      17.145  -0.837  -4.993  1.00  0.00     0.042 A 
ATOM      2  C   UNL     1      18.322  -1.520  -4.687  1.00  0.00     0.030 A 
ATOM      3  C   UNL     1      18.546  -2.013  -3.397  1.00  0.00     0.049 A 
ATOM      4  C   UNL     1      17.589  -1.830  -2.401  1.00  0.00     0.130 A 
ATOM      5  C   UNL     1      16.399  -1.155  -2.686  1.00  0.00     0.103 A 
ATOM      6  C   UNL     1      16.186  -0.663  -3.987  1.00  0.00     0.045 A 
ENDROOT
BRANCH   1   7
ATOM      7  N   UNL     1      16.845  -0.313  -6.267  1.00  0.00    -0.322 N 
ATOM      8  O   UNL     1      15.654  -2.057  -7.264  1.00  0.00    -0.269 OA
ATOM      9  C   UNL     1      16.117  -0.923  -7.274  1.00  0.00     0.255 C 
ATOM     10  H   UNL     1      17.273   0.577  -6.487  1.00  0.00     0.170 HD
BRANCH   9  11
ATOM     11  C   UNL     1      15.930  -0.100  -8.502  1.00  0.00     0.040 A 
ATOM     12  C   UNL     1      16.178   1.278  -8.511  1.00  0.00     0.014 A 
ATOM     13  C   UNL     1      15.460  -0.730  -9.663  1.00  0.00     0.027 A 
ATOM     14  C   UNL     1      15.980   2.015  -9.681  1.00  0.00     0.001 A 
ATOM     15  C   UNL     1      15.266   0.001 -10.846  1.00  0.00     0.056 A 
ATOM     16  C   UNL     1      15.528   1.380 -10.840  1.00  0.00     0.013 A 
BRANCH  15  17
ATOM     17  C   UNL     1      14.743  -0.679 -12.088  1.00  0.00     0.416 C 
ATOM     18  F   UNL     1      13.385  -0.745 -12.110  1.00  0.00    -0.166 F 
ATOM     19  F   UNL     1      15.107  -0.042 -13.236  1.00  0.00    -0.166 F 
ATOM     20  F   UNL     1      15.187  -1.960 -12.220  1.00  0.00    -0.166 F 
ENDBRANCH  15  17
ENDBRANCH   9  11
ENDBRANCH   1   7
BRANCH   5  21
ATOM     21  C   UNL     1      15.350  -0.973  -1.648  1.00  0.00     0.339 C 
ATOM     22  O   UNL     1      15.436  -0.402  -0.579  1.00  0.00    -0.246 OA
BRANCH  21  23
ATOM     23  O   UNL     1      14.185  -1.547  -2.016  1.00  0.00    -0.478 OA
ATOM     24  H   UNL     1      14.366  -2.502  -1.887  1.00  0.00     0.297 HD
ENDBRANCH  21  23
ENDBRANCH   5  21
BRANCH   4  25
ATOM     25  O   UNL     1      17.843  -2.298  -1.143  1.00  0.00    -0.507 OA
ATOM     26  H   UNL     1      17.159  -1.987  -0.529  1.00  0.00     0.293 HD
ENDBRANCH   4  25
TORSDOF 6
ENDMDL
MODEL 4
REMARK VINA RESULT:    -5.849      1.317      1.571
REMARK INTER + INTRA:          -8.198
REMARK INTER:                  -7.485
REMARK INTRA:                  -0.713
REMARK UNBOUND:                -0.639
REMARK SMILES O=C(Nc1ccc(O)c(C(=O)O)c1)c1cccc(C(F)(F)F)c1
REMARK SMILES IDX 4 1 5 2 6 3 7 4 9 5 13 6 3 7 1 8 2 9 14 11 15 12 23 13 16 14
REMARK SMILES IDX 18 15 17 16 19 17 20 18 21 19 22 20 10 21 11 22 12 23 8 25
REMARK H PARENT 3 10 12 24 8 26
ROOT
ATOM      1  C   UNL     1      16.195   0.257  -5.599  1.00  0.00     0.042 A 
ATOM      2  C   UNL     1      15.973   1.606  -5.318  1.00  0.00     0.030 A 
ATOM      3  C   UNL     1      15.535   2.007  -4.052  1.00  0.00     0.049 A 
ATOM      4  C   UNL     1      15.318   1.060  -3.052  1.00  0.00     0.130 A 
ATOM      5  C   UNL     1      15.542  -0.295  -3.309  1.00  0.00     0.103 A 
ATOM      6  C   UNL     1      15.981  -0.687  -4.587  1.00  0.00     0.045 A 
ENDROOT
BRANCH   1   7
ATOM      7  N   UNL     1      16.639  -0.225  -6.848  1.00  0.00    -0.322 N 
ATOM      8  O   UNL     1      14.819  -1.494  -7.575  1.00  0.00    -0.269 OA
ATOM      9  C   UNL     1      15.935  -1.016  -7.739  1.00  0.00     0.255 C 
ATOM     10  H   UNL     1      17.604  -0.025  -7.077  1.00  0.00     0.170 HD
BRANCH   9  11
ATOM     11  C   UNL     1      16.656  -1.334  -9.004  1.00  0.00     0.040 A 
ATOM     12  C   UNL     1      18.040  -1.542  -9.031  1.00  0.00     0.014 A 
ATOM     13  C   UNL     1      15.921  -1.388 -10.196  1.00  0.00     0.027 A 
ATOM     14  C   UNL     1      18.679  -1.828 -10.240  1.00  0.00     0.001 A 
ATOM     15  C   UNL     1      16.553  -1.683 -11.414  1.00  0.00     0.056 A 
ATOM     16  C   UNL     1      17.940  -1.899 -11.422  1.00  0.00     0.013 A 
BRANCH  15  17
ATOM     17  C   UNL     1      15.759  -1.723 -12.698  1.00  0.00     0.416 C 
ATOM     18  F   UNL     1      14.455  -1.386 -12.512  1.00  0.00    -0.166 F 
ATOM     19  F   UNL     1      16.236  -0.869 -13.646  1.00  0.00    -0.166 F 
ATOM     20  F   UNL     1      15.752  -2.955 -13.280  1.00  0.00    -0.166 F 
ENDBRANCH  15  17
ENDBRANCH   9  11
ENDBRANCH   1   7
BRANCH   5  21
ATOM     21  C   UNL     1      15.346  -1.321  -2.250  1.00  0.00     0.339 C 
ATOM     22  O   UNL     1      16.188  -1.970  -1.662  1.00  0.00    -0.246 OA
BRANCH  21  23
ATOM     23  O   UNL     1      14.038  -1.494  -1.965  1.00  0.00    -0.478 OA
ATOM     24  H   UNL     1      13.789  -2.243  -2.549  1.00  0.00     0.297 HD
ENDBRANCH  21  23
ENDBRANCH   5  21
BRANCH   4  25
ATOM     25  O   UNL     1      14.865   1.476  -1.833  1.00  0.00    -0.507 OA
ATOM     26  H   UNL     1      15.535   2.032  -1.402  1.00  0.00     0.293 HD
ENDBRANCH   4  25
TORSDOF 6
ENDMDL
MODEL 5
REMARK VINA RESULT:    -5.815      2.340      3.209
REMARK INTER + INTRA:          -8.154
REMARK INTER:                  -7.355
REMARK INTRA:                  -0.798
REMARK UNBOUND:                -0.639
REMARK SMILES O=C(Nc1ccc(O)c(C(=O)O)c1)c1cccc(C(F)(F)F)c1
REMARK SMILES IDX 4 1 5 2 6 3 7 4 9 5 13 6 3 7 1 8 2 9 14 11 15 12 23 13 16 14
REMARK SMILES IDX 18 15 17 16 19 17 20 18 21 19 22 20 10 21 11 22 12 23 8 25
REMARK H PARENT 3 10 12 24 8 26
ROOT
ATOM      1  C   UNL     1      16.935  -0.725  -7.312  1.00  0.00     0.042 A 
ATOM      2  C   UNL     1      18.234  -0.369  -6.949  1.00  0.00     0.030 A 
ATOM      3  C   UNL     1      18.539  -0.041  -5.624  1.00  0.00     0.049 A 
ATOM      4  C   UNL     1      17.544  -0.069  -4.648  1.00  0.00     0.130 A 
ATOM      5  C   UNL     1      16.237  -0.430  -4.988  1.00  0.00     0.103 A 
ATOM      6  C   UNL     1      15.943  -0.757  -6.324  1.00  0.00     0.045 A 
ENDROOT
BRANCH   1   7
ATOM      7  N   UNL     1      16.549  -1.072  -8.624  1.00  0.00    -0.322 N 
ATOM      8  O   UNL     1      15.264   0.765  -9.276  1.00  0.00    -0.269 OA
ATOM      9  C   UNL     1      15.792  -0.317  -9.502  1.00  0.00     0.255 C 
ATOM     10  H   UNL     1      16.799  -2.006  -8.921  1.00  0.00     0.170 HD
BRANCH   9  11
ATOM     11  C   UNL     1      15.583  -0.933 -10.843  1.00  0.00     0.040 A 
ATOM     12  C   UNL     1      14.606  -0.460 -11.727  1.00  0.00     0.014 A 
ATOM     13  C   UNL     1      16.369  -2.037 -11.201  1.00  0.00     0.027 A 
ATOM     14  C   UNL     1      14.435  -1.072 -12.970  1.00  0.00     0.001 A 
ATOM     15  C   UNL     1      16.209  -2.654 -12.452  1.00  0.00     0.056 A 
ATOM     16  C   UNL     1      15.232  -2.161 -13.330  1.00  0.00     0.013 A 
BRANCH  15  17
ATOM     17  C   UNL     1      17.046  -3.854 -12.825  1.00  0.00     0.416 C 
ATOM     18  F   UNL     1      16.957  -4.854 -11.908  1.00  0.00    -0.166 F 
ATOM     19  F   UNL     1      16.685  -4.404 -14.018  1.00  0.00    -0.166 F 
ATOM     20  F   UNL     1      18.372  -3.562 -12.939  1.00  0.00    -0.166 F 
ENDBRANCH  15  17
ENDBRANCH   9  11
ENDBRANCH   1   7
BRANCH   5  21
ATOM     21  C   UNL     1      15.166  -0.496  -3.959  1.00  0.00     0.339 C 
ATOM     22  O   UNL     1      15.132  -1.163  -2.944  1.00  0.00    -0.246 OA
BRANCH  21  23
ATOM     23  O   UNL     1      14.133   0.317  -4.267  1.00  0.00    -0.478 OA
ATOM     24  H   UNL     1      13.402  -0.317  -4.429  1.00  0.00     0.297 HD
ENDBRANCH  21  23
ENDBRANCH   5  21
BRANCH   4  25
ATOM     25  O   UNL     1      17.862   0.282  -3.367  1.00  0.00    -0.507 OA
ATOM     26  H   UNL     1      18.745   0.685  -3.343  1.00  0.00     0.293 HD
ENDBRANCH   4  25
TORSDOF 6
ENDMDL
MODEL 6
REMARK VINA RESULT:    -5.675      1.949      2.509
REMARK INTER + INTRA:          -7.973
REMARK INTER:                  -7.150
REMARK INTRA:                  -0.823
REMARK UNBOUND:                -0.639
REMARK SMILES O=C(Nc1ccc(O)c(C(=O)O)c1)c1cccc(C(F)(F)F)c1
REMARK SMILES IDX 4 1 5 2 6 3 7 4 9 5 13 6 3 7 1 8 2 9 14 11 15 12 23 13 16 14
REMARK SMILES IDX 18 15 17 16 19 17 20 18 21 19 22 20 10 21 11 22 12 23 8 25
REMARK H PARENT 3 10 12 24 8 26
ROOT
ATOM      1  C   UNL     1      16.278   1.007  -4.553  1.00  0.00     0.042 A 
ATOM      2  C   UNL     1      17.058   1.997  -3.955  1.00  0.00     0.030 A 
ATOM      3  C   UNL     1      17.263   2.006  -2.572  1.00  0.00     0.049 A 
ATOM      4  C   UNL     1      16.689   1.019  -1.772  1.00  0.00     0.130 A 
ATOM      5  C   UNL     1      15.910   0.012  -2.350  1.00  0.00     0.103 A 
ATOM      6  C   UNL     1      15.711   0.015  -3.742  1.00  0.00     0.045 A 
ENDROOT
BRANCH   1   7
ATOM      7  N   UNL     1      16.028   0.928  -5.938  1.00  0.00    -0.322 N 
ATOM      8  O   UNL     1      18.009   0.004  -6.758  1.00  0.00    -0.269 OA
ATOM      9  C   UNL     1      16.868   0.420  -6.914  1.00  0.00     0.255 C 
ATOM     10  H   UNL     1      15.167   1.357  -6.253  1.00  0.00     0.170 HD
BRANCH   9  11
ATOM     11  C   UNL     1      16.308   0.433  -8.295  1.00  0.00     0.040 A 
ATOM     12  C   UNL     1      16.134  -0.745  -9.031  1.00  0.00     0.014 A 
ATOM     13  C   UNL     1      15.984   1.668  -8.873  1.00  0.00     0.027 A 
ATOM     14  C   UNL     1      15.616  -0.688 -10.327  1.00  0.00     0.001 A 
ATOM     15  C   UNL     1      15.455   1.735 -10.171  1.00  0.00     0.056 A 
ATOM     16  C   UNL     1      15.278   0.543 -10.892  1.00  0.00     0.013 A 
BRANCH  15  17
ATOM     17  C   UNL     1      15.123   3.069 -10.795  1.00  0.00     0.416 C 
ATOM     18  F   UNL     1      13.815   3.405 -10.634  1.00  0.00    -0.166 F 
ATOM     19  F   UNL     1      15.844   4.097 -10.268  1.00  0.00    -0.166 F 
ATOM     20  F   UNL     1      15.359   3.102 -12.136  1.00  0.00    -0.166 F 
ENDBRANCH  15  17
ENDBRANCH   9  11
ENDBRANCH   1   7
BRANCH   5  21
ATOM     21  C   UNL     1      15.312  -1.068  -1.521  1.00  0.00     0.339 C 
ATOM     22  O   UNL     1      15.747  -1.567  -0.502  1.00  0.00    -0.246 OA
BRANCH  21  23
ATOM     23  O   UNL     1      14.140  -1.495  -2.036  1.00  0.00    -0.478 OA
ATOM     24  H   UNL     1      13.480  -1.082  -1.439  1.00  0.00     0.297 HD
ENDBRANCH  21  23
ENDBRANCH   5  21
BRANCH   4  25
ATOM     25  O   UNL     1      16.882   1.065  -0.421  1.00  0.00    -0.507 OA
ATOM     26  H   UNL     1      16.642   1.943  -0.082  1.00  0.00     0.293 HD
ENDBRANCH   4  25
TORSDOF 6
ENDMDL
MODEL 7
REMARK VINA RESULT:    -5.653      1.592      2.274
REMARK INTER + INTRA:          -7.944
REMARK INTER:                  -7.168
REMARK INTRA:                  -0.777
REMARK UNBOUND:                -0.639
REMARK SMILES O=C(Nc1ccc(O)c(C(=O)O)c1)c1cccc(C(F)(F)F)c1
REMARK SMILES IDX 4 1 5 2 6 3 7 4 9 5 13 6 3 7 1 8 2 9 14 11 15 12 23 13 16 14
REMARK SMILES IDX 18 15 17 16 19 17 20 18 21 19 22 20 10 21 11 22 12 23 8 25
REMARK H PARENT 3 10 12 24 8 26
ROOT
ATOM      1  C   UNL     1      16.509   1.348  -3.964  1.00  0.00     0.042 A 
ATOM      2  C   UNL     1      17.298   2.178  -3.168  1.00  0.00     0.030 A 
ATOM      3  C   UNL     1      17.435   1.933  -1.798  1.00  0.00     0.049 A 
ATOM      4  C   UNL     1      16.782   0.849  -1.211  1.00  0.00     0.130 A 
ATOM      5  C   UNL     1      15.992   0.000  -1.991  1.00  0.00     0.103 A 
ATOM      6  C   UNL     1      15.862   0.258  -3.368  1.00  0.00     0.045 A 
ENDROOT
BRANCH   1   7
ATOM      7  N   UNL     1      16.325   1.528  -5.351  1.00  0.00    -0.322 N 
ATOM      8  O   UNL     1      17.600  -0.204  -6.259  1.00  0.00    -0.269 OA
ATOM      9  C   UNL     1      16.838   0.748  -6.372  1.00  0.00     0.255 C 
ATOM     10  H   UNL     1      15.818   2.361  -5.621  1.00  0.00     0.170 HD
BRANCH   9  11
ATOM     11  C   UNL     1      16.434   1.163  -7.745  1.00  0.00     0.040 A 
ATOM     12  C   UNL     1      16.333   2.512  -8.108  1.00  0.00     0.014 A 
ATOM     13  C   UNL     1      16.114   0.167  -8.678  1.00  0.00     0.027 A 
ATOM     14  C   UNL     1      15.941   2.859  -9.402  1.00  0.00     0.001 A 
ATOM     15  C   UNL     1      15.727   0.506  -9.984  1.00  0.00     0.056 A 
ATOM     16  C   UNL     1      15.641   1.863 -10.334  1.00  0.00     0.013 A 
BRANCH  15  17
ATOM     17  C   UNL     1      15.368  -0.571 -10.979  1.00  0.00     0.416 C 
ATOM     18  F   UNL     1      15.786  -0.273 -12.238  1.00  0.00    -0.166 F 
ATOM     19  F   UNL     1      15.918  -1.780 -10.677  1.00  0.00    -0.166 F 
ATOM     20  F   UNL     1      14.026  -0.787 -11.068  1.00  0.00    -0.166 F 
ENDBRANCH  15  17
ENDBRANCH   9  11
ENDBRANCH   1   7
BRANCH   5  21
ATOM     21  C   UNL     1      15.310  -1.179  -1.394  1.00  0.00     0.339 C 
ATOM     22  O   UNL     1      15.661  -1.856  -0.448  1.00  0.00    -0.246 OA
BRANCH  21  23
ATOM     23  O   UNL     1      14.164  -1.470  -2.045  1.00  0.00    -0.478 OA
ATOM     24  H   UNL     1      13.500  -0.937  -1.559  1.00  0.00     0.297 HD
ENDBRANCH  21  23
ENDBRANCH   5  21
BRANCH   4  25
ATOM     25  O   UNL     1      16.910   0.647   0.133  1.00  0.00    -0.507 OA
ATOM     26  H   UNL     1      16.614  -0.248   0.364  1.00  0.00     0.293 HD
ENDBRANCH   4  25
TORSDOF 6
ENDMDL
MODEL 8
REMARK VINA RESULT:    -5.602      1.868      2.372
REMARK INTER + INTRA:          -7.878
REMARK INTER:                  -7.098
REMARK INTRA:                  -0.781
REMARK UNBOUND:                -0.639
REMARK SMILES O=C(Nc1ccc(O)c(C(=O)O)c1)c1cccc(C(F)(F)F)c1
REMARK SMILES IDX 4 1 5 2 6 3 7 4 9 5 13 6 3 7 1 8 2 9 14 11 15 12 23 13 16 14
REMARK SMILES IDX 18 15 17 16 19 17 20 18 21 19 22 20 10 21 11 22 12 23 8 25
REMARK H PARENT 3 10 12 24 8 26
ROOT
ATOM      1  C   UNL     1      17.191   0.858  -7.072  1.00  0.00     0.042 A 
ATOM      2  C   UNL     1      18.256   1.752  -6.956  1.00  0.00     0.030 A 
ATOM      3  C   UNL     1      18.361   2.595  -5.845  1.00  0.00     0.049 A 
ATOM      4  C   UNL     1      17.401   2.547  -4.835  1.00  0.00     0.130 A 
ATOM      5  C   UNL     1      16.330   1.654  -4.926  1.00  0.00     0.103 A 
ATOM      6  C   UNL     1      16.235   0.812  -6.050  1.00  0.00     0.045 A 
ENDROOT
BRANCH   1   7
ATOM      7  N   UNL     1      17.017  -0.025  -8.158  1.00  0.00    -0.322 N 
ATOM      8  O   UNL     1      15.243   0.949  -9.322  1.00  0.00    -0.269 OA
ATOM      9  C   UNL     1      16.107   0.091  -9.194  1.00  0.00     0.255 C 
ATOM     10  H   UNL     1      17.575  -0.869  -8.131  1.00  0.00     0.170 HD
BRANCH   9  11
ATOM     11  C   UNL     1      16.188  -0.982 -10.226  1.00  0.00     0.040 A 
ATOM     12  C   UNL     1      16.989  -2.117 -10.048  1.00  0.00     0.014 A 
ATOM     13  C   UNL     1      15.465  -0.821 -11.416  1.00  0.00     0.027 A 
ATOM     14  C   UNL     1      17.045  -3.094 -11.044  1.00  0.00     0.001 A 
ATOM     15  C   UNL     1      15.508  -1.801 -12.419  1.00  0.00     0.056 A 
ATOM     16  C   UNL     1      16.309  -2.938 -12.220  1.00  0.00     0.013 A 
BRANCH  15  17
ATOM     17  C   UNL     1      14.741  -1.615 -13.705  1.00  0.00     0.416 C 
ATOM     18  F   UNL     1      15.198  -0.561 -14.433  1.00  0.00    -0.166 F 
ATOM     19  F   UNL     1      14.811  -2.698 -14.529  1.00  0.00    -0.166 F 
ATOM     20  F   UNL     1      13.413  -1.388 -13.504  1.00  0.00    -0.166 F 
ENDBRANCH  15  17
ENDBRANCH   9  11
ENDBRANCH   1   7
BRANCH   5  21
ATOM     21  C   UNL     1      15.310   1.564  -3.848  1.00  0.00     0.339 C 
ATOM     22  O   UNL     1      15.482   1.404  -2.656  1.00  0.00    -0.246 OA
BRANCH  21  23
ATOM     23  O   UNL     1      14.059   1.682  -4.340  1.00  0.00    -0.478 OA
ATOM     24  H   UNL     1      14.203   1.632  -5.309  1.00  0.00     0.297 HD
ENDBRANCH  21  23
ENDBRANCH   5  21
BRANCH   4  25
ATOM     25  O   UNL     1      17.513   3.399  -3.774  1.00  0.00    -0.507 OA
ATOM     26  H   UNL     1      16.683   3.888  -3.652  1.00  0.00     0.293 HD
ENDBRANCH   4  25
TORSDOF 6
ENDMDL
MODEL 9
REMARK VINA RESULT:    -5.537      1.974      2.572
REMARK INTER + INTRA:          -7.795
REMARK INTER:                  -7.118
REMARK INTRA:                  -0.676
REMARK UNBOUND:                -0.639
REMARK SMILES O=C(Nc1ccc(O)c(C(=O)O)c1)c1cccc(C(F)(F)F)c1
REMARK SMILES IDX 4 1 5 2 6 3 7 4 9 5 13 6 3 7 1 8 2 9 14 11 15 12 23 13 16 14
REMARK SMILES IDX 18 15 17 16 19 17 20 18 21 19 22 20 10 21 11 22 12 23 8 25
REMARK H PARENT 3 10 12 24 8 26
ROOT
ATOM      1  C   UNL     1      16.449   0.173  -5.011  1.00  0.00     0.042 A 
ATOM      2  C   UNL     1      17.035   1.393  -4.670  1.00  0.00     0.030 A 
ATOM      3  C   UNL     1      17.037   1.836  -3.343  1.00  0.00     0.049 A 
ATOM      4  C   UNL     1      16.455   1.059  -2.343  1.00  0.00     0.130 A 
ATOM      5  C   UNL     1      15.870  -0.170  -2.660  1.00  0.00     0.103 A 
ATOM      6  C   UNL     1      15.872  -0.604  -3.998  1.00  0.00     0.045 A 
ENDROOT
BRANCH   1   7
ATOM      7  N   UNL     1      16.409  -0.343  -6.322  1.00  0.00    -0.322 N 
ATOM      8  O   UNL     1      15.816   1.529  -7.585  1.00  0.00    -0.269 OA
ATOM      9  C   UNL     1      16.136   0.350  -7.488  1.00  0.00     0.255 C 
ATOM     10  H   UNL     1      16.525  -1.345  -6.402  1.00  0.00     0.170 HD
BRANCH   9  11
ATOM     11  C   UNL     1      16.208  -0.462  -8.735  1.00  0.00     0.040 A 
ATOM     12  C   UNL     1      15.841   0.064  -9.980  1.00  0.00     0.014 A 
ATOM     13  C   UNL     1      16.624  -1.797  -8.640  1.00  0.00     0.027 A 
ATOM     14  C   UNL     1      15.913  -0.734 -11.123  1.00  0.00     0.001 A 
ATOM     15  C   UNL     1      16.708  -2.604  -9.785  1.00  0.00     0.056 A 
ATOM     16  C   UNL     1      16.345  -2.058 -11.027  1.00  0.00     0.013 A 
BRANCH  15  17
ATOM     17  C   UNL     1      17.140  -4.047  -9.675  1.00  0.00     0.416 C 
ATOM     18  F   UNL     1      18.429  -4.171  -9.259  1.00  0.00    -0.166 F 
ATOM     19  F   UNL     1      16.390  -4.761  -8.790  1.00  0.00    -0.166 F 
ATOM     20  F   UNL     1      17.057  -4.718 -10.857  1.00  0.00    -0.166 F 
ENDBRANCH  15  17
ENDBRANCH   9  11
ENDBRANCH   1   7
BRANCH   5  21
ATOM     21  C   UNL     1      15.269  -1.030  -1.607  1.00  0.00     0.339 C 
ATOM     22  O   UNL     1      15.701  -1.282  -0.499  1.00  0.00    -0.246 OA
BRANCH  21  23
ATOM     23  O   UNL     1      14.096  -1.562  -2.012  1.00  0.00    -0.478 OA
ATOM     24  H   UNL     1      13.445  -0.882  -1.736  1.00  0.00     0.297 HD
ENDBRANCH  21  23
ENDBRANCH   5  21
BRANCH   4  25
ATOM     25  O   UNL     1      16.447   1.527  -1.060  1.00  0.00    -0.507 OA
ATOM     26  H   UNL     1      15.886   2.317  -0.999  1.00  0.00     0.293 HD
ENDBRANCH   4  25
TORSDOF 6
ENDMDL
