MODEL 1
REMARK VINA RESULT:    -5.626      0.000      0.000
REMARK INTER + INTRA:          -8.163
REMARK INTER:                  -7.599
REMARK INTRA:                  -0.563
REMARK UNBOUND:                -0.563
REMARK SMILES COC(=O)c1sc(NC(=O)COc2ccc(Cl)cc2F)nc1C
REMARK SMILES IDX 8 1 9 2 10 3 7 5 5 6 6 7 22 8 21 9 23 10 3 11 4 12 2 13 1 14
REMARK SMILES IDX 11 15 12 16 13 17 14 18 19 19 15 20 18 21 16 22 20 23 17 24
REMARK H PARENT 8 4
ROOT
ATOM      1  N   UNL     1      16.570   0.011  -6.487  1.00  0.00    -0.299 N 
ATOM      2  C   UNL     1      15.954  -0.705  -7.487  1.00  0.00     0.264 C 
ATOM      3  O   UNL     1      15.201  -1.667  -7.352  1.00  0.00    -0.271 OA
ATOM      4  H   UNL     1      17.074   0.853  -6.740  1.00  0.00     0.172 HD
ENDROOT
BRANCH   1   5
ATOM      5  C   UNL     1      16.587  -0.275  -5.149  1.00  0.00     0.190 A 
ATOM      6  C   UNL     1      16.127  -0.702  -2.808  1.00  0.00     0.137 A 
ATOM      7  S   UNL     1      15.232  -0.095  -4.147  1.00  0.00    -0.089 S 
ATOM      8  C   UNL     1      17.417  -1.005  -3.227  1.00  0.00     0.065 A 
ATOM      9  N   UNL     1      17.660  -0.757  -4.572  1.00  0.00    -0.224 NA
ATOM     10  C   UNL     1      18.539  -1.553  -2.419  1.00  0.00     0.069 C 
BRANCH   6  11
ATOM     11  C   UNL     1      15.480  -0.808  -1.520  1.00  0.00     0.350 C 
ATOM     12  O   UNL     1      15.219  -1.846  -0.924  1.00  0.00    -0.245 OA
BRANCH  11  13
ATOM     13  O   UNL     1      15.184   0.432  -1.034  1.00  0.00    -0.465 OA
ATOM     14  C   UNL     1      16.303   1.165  -0.532  1.00  0.00     0.282 C 
ENDBRANCH  11  13
ENDBRANCH   6  11
ENDBRANCH   1   5
BRANCH   2  15
ATOM     15  C   UNL     1      16.255  -0.149  -8.882  1.00  0.00     0.329 C 
BRANCH  15  16
ATOM     16  O   UNL     1      15.061  -0.115  -9.672  1.00  0.00    -0.481 OA
BRANCH  16  17
ATOM     17  C   UNL     1      15.209  -0.796 -10.853  1.00  0.00     0.155 A 
ATOM     18  C   UNL     1      16.331  -1.624 -10.974  1.00  0.00     0.051 A 
ATOM     19  C   UNL     1      14.318  -0.667 -11.923  1.00  0.00     0.166 A 
ATOM     20  C   UNL     1      16.522  -2.364 -12.146  1.00  0.00     0.024 A 
ATOM     21  C   UNL     1      14.500  -1.401 -13.092  1.00  0.00     0.063 A 
ATOM     22  C   UNL     1      15.602  -2.258 -13.192  1.00  0.00     0.044 A 
ATOM     23  F   UNL     1      13.267   0.165 -11.834  1.00  0.00    -0.203 F 
ATOM     24  Cl  UNL     1      15.826  -3.195 -14.620  1.00  0.00    -0.084 Cl
ENDBRANCH  16  17
ENDBRANCH  15  16
ENDBRANCH   2  15
TORSDOF 6
ENDMDL
MODEL 2
REMARK VINA RESULT:    -5.469      0.619      1.098
REMARK INTER + INTRA:          -7.950
REMARK INTER:                  -7.500
REMARK INTRA:                  -0.450
REMARK UNBOUND:                -0.563
REMARK SMILES COC(=O)c1sc(NC(=O)COc2ccc(Cl)cc2F)nc1C
REMARK SMILES IDX 8 1 9 2 10 3 7 5 5 6 6 7 22 8 21 9 23 10 3 11 4 12 2 13 1 14
REMARK SMILES IDX 11 15 12 16 13 17 14 18 19 19 15 20 18 21 16 22 20 23 17 24
REMARK H PARENT 8 4
ROOT
ATOM      1  N   UNL     1      16.600   0.222  -6.373  1.00  0.00    -0.299 N 
ATOM      2  C   UNL     1      15.978  -0.584  -7.298  1.00  0.00     0.264 C 
ATOM      3  O   UNL     1      15.238  -1.538  -7.070  1.00  0.00    -0.271 OA
ATOM      4  H   UNL     1      17.091   1.044  -6.706  1.00  0.00     0.172 HD
ENDROOT
BRANCH   1   5
ATOM      5  C   UNL     1      16.639   0.053  -5.015  1.00  0.00     0.190 A 
ATOM      6  C   UNL     1      16.219  -0.318  -2.658  1.00  0.00     0.137 A 
ATOM      7  S   UNL     1      15.247  -0.104  -4.062  1.00  0.00    -0.089 S 
ATOM      8  C   UNL     1      17.558  -0.256  -3.023  1.00  0.00     0.065 A 
ATOM      9  N   UNL     1      17.779  -0.046  -4.378  1.00  0.00    -0.224 NA
ATOM     10  C   UNL     1      18.754  -0.386  -2.147  1.00  0.00     0.069 C 
BRANCH   6  11
ATOM     11  C   UNL     1      15.573  -0.517  -1.380  1.00  0.00     0.350 C 
ATOM     12  O   UNL     1      15.313   0.352  -0.557  1.00  0.00    -0.245 OA
BRANCH  11  13
ATOM     13  O   UNL     1      15.281  -1.838  -1.196  1.00  0.00    -0.465 OA
ATOM     14  C   UNL     1      16.237  -2.563  -0.421  1.00  0.00     0.282 C 
ENDBRANCH  11  13
ENDBRANCH   6  11
ENDBRANCH   1   5
BRANCH   2  15
ATOM     15  C   UNL     1      16.253  -0.147  -8.740  1.00  0.00     0.329 C 
BRANCH  15  16
ATOM     16  O   UNL     1      15.050  -0.200  -9.514  1.00  0.00    -0.481 OA
BRANCH  16  17
ATOM     17  C   UNL     1      15.231  -0.868 -10.698  1.00  0.00     0.155 A 
ATOM     18  C   UNL     1      16.311  -1.754 -10.770  1.00  0.00     0.051 A 
ATOM     19  C   UNL     1      14.413  -0.672 -11.816  1.00  0.00     0.166 A 
ATOM     20  C   UNL     1      16.531  -2.484 -11.944  1.00  0.00     0.024 A 
ATOM     21  C   UNL     1      14.625  -1.395 -12.986  1.00  0.00     0.063 A 
ATOM     22  C   UNL     1      15.682  -2.309 -13.039  1.00  0.00     0.044 A 
ATOM     23  F   UNL     1      13.405   0.216 -11.772  1.00  0.00    -0.203 F 
ATOM     24  Cl  UNL     1      15.940  -3.232 -14.470  1.00  0.00    -0.084 Cl
ENDBRANCH  16  17
ENDBRANCH  15  16
ENDBRANCH   2  15
TORSDOF 6
ENDMDL
MODEL 3
REMARK VINA RESULT:    -5.405      1.587      2.108
REMARK INTER + INTRA:          -7.865
REMARK INTER:                  -7.252
REMARK INTRA:                  -0.613
REMARK UNBOUND:                -0.563
REMARK SMILES COC(=O)c1sc(NC(=O)COc2ccc(Cl)cc2F)nc1C
REMARK SMILES IDX 8 1 9 2 10 3 7 5 5 6 6 7 22 8 21 9 23 10 3 11 4 12 2 13 1 14
REMARK SMILES IDX 11 15 12 16 13 17 14 18 19 19 15 20 18 21 16 22 20 23 17 24
REMARK H PARENT 8 4
ROOT
ATOM      1  N   UNL     1      16.506   0.135  -6.634  1.00  0.00    -0.299 N 
ATOM      2  C   UNL     1      16.423   1.281  -7.391  1.00  0.00     0.264 C 
ATOM      3  O   UNL     1      16.480   2.440  -6.988  1.00  0.00    -0.271 OA
ATOM      4  H   UNL     1      16.559  -0.755  -7.115  1.00  0.00     0.172 HD
ENDROOT
BRANCH   1   5
ATOM      5  C   UNL     1      16.534   0.041  -5.269  1.00  0.00     0.190 A 
ATOM      6  C   UNL     1      16.100  -0.240  -2.902  1.00  0.00     0.137 A 
ATOM      7  S   UNL     1      15.140  -0.172  -4.329  1.00  0.00    -0.089 S 
ATOM      8  C   UNL     1      17.437  -0.094  -3.250  1.00  0.00     0.065 A 
ATOM      9  N   UNL     1      17.666   0.061  -4.611  1.00  0.00    -0.224 NA
ATOM     10  C   UNL     1      18.623  -0.088  -2.352  1.00  0.00     0.069 C 
BRANCH   6  11
ATOM     11  C   UNL     1      15.448  -0.420  -1.624  1.00  0.00     0.350 C 
ATOM     12  O   UNL     1      15.093   0.469  -0.860  1.00  0.00    -0.245 OA
BRANCH  11  13
ATOM     13  O   UNL     1      15.272  -1.749  -1.364  1.00  0.00    -0.465 OA
ATOM     14  C   UNL     1      16.203  -2.309  -0.437  1.00  0.00     0.282 C 
ENDBRANCH  11  13
ENDBRANCH   6  11
ENDBRANCH   1   5
BRANCH   2  15
ATOM     15  C   UNL     1      16.292   0.989  -8.889  1.00  0.00     0.329 C 
BRANCH  15  16
ATOM     16  O   UNL     1      15.190   0.108  -9.130  1.00  0.00    -0.481 OA
BRANCH  16  17
ATOM     17  C   UNL     1      15.359  -0.622 -10.278  1.00  0.00     0.155 A 
ATOM     18  C   UNL     1      14.511  -0.327 -11.351  1.00  0.00     0.051 A 
ATOM     19  C   UNL     1      16.303  -1.648 -10.396  1.00  0.00     0.166 A 
ATOM     20  C   UNL     1      14.654  -1.021 -12.558  1.00  0.00     0.024 A 
ATOM     21  C   UNL     1      16.452  -2.342 -11.593  1.00  0.00     0.063 A 
ATOM     22  C   UNL     1      15.629  -2.015 -12.676  1.00  0.00     0.044 A 
ATOM     23  F   UNL     1      17.086  -1.973  -9.354  1.00  0.00    -0.203 F 
ATOM     24  Cl  UNL     1      15.820  -2.845 -14.173  1.00  0.00    -0.084 Cl
ENDBRANCH  16  17
ENDBRANCH  15  16
ENDBRANCH   2  15
TORSDOF 6
ENDMDL
MODEL 4
REMARK VINA RESULT:    -5.225      1.300      1.451
REMARK INTER + INTRA:          -7.620
REMARK INTER:                  -7.065
REMARK INTRA:                  -0.555
REMARK UNBOUND:                -0.563
REMARK SMILES COC(=O)c1sc(NC(=O)COc2ccc(Cl)cc2F)nc1C
REMARK SMILES IDX 8 1 9 2 10 3 7 5 5 6 6 7 22 8 21 9 23 10 3 11 4 12 2 13 1 14
REMARK SMILES IDX 11 15 12 16 13 17 14 18 19 19 15 20 18 21 16 22 20 23 17 24
REMARK H PARENT 8 4
ROOT
ATOM      1  N   UNL     1      16.672  -0.035  -6.476  1.00  0.00    -0.299 N 
ATOM      2  C   UNL     1      16.008  -0.688  -7.488  1.00  0.00     0.264 C 
ATOM      3  O   UNL     1      15.177  -1.585  -7.370  1.00  0.00    -0.271 OA
ATOM      4  H   UNL     1      17.246   0.764  -6.716  1.00  0.00     0.172 HD
ENDROOT
BRANCH   1   5
ATOM      5  C   UNL     1      16.651  -0.333  -5.140  1.00  0.00     0.190 A 
ATOM      6  C   UNL     1      16.131  -0.750  -2.811  1.00  0.00     0.137 A 
ATOM      7  S   UNL     1      15.295  -0.076  -4.156  1.00  0.00    -0.089 S 
ATOM      8  C   UNL     1      17.404  -1.131  -3.214  1.00  0.00     0.065 A 
ATOM      9  N   UNL     1      17.683  -0.887  -4.553  1.00  0.00    -0.224 NA
ATOM     10  C   UNL     1      18.477  -1.756  -2.396  1.00  0.00     0.069 C 
BRANCH   6  11
ATOM     11  C   UNL     1      15.459  -0.826  -1.532  1.00  0.00     0.350 C 
ATOM     12  O   UNL     1      15.187  -1.850  -0.917  1.00  0.00    -0.245 OA
BRANCH  11  13
ATOM     13  O   UNL     1      15.152   0.425  -1.082  1.00  0.00    -0.465 OA
ATOM     14  C   UNL     1      16.271   1.199  -0.646  1.00  0.00     0.282 C 
ENDBRANCH  11  13
ENDBRANCH   6  11
ENDBRANCH   1   5
BRANCH   2  15
ATOM     15  C   UNL     1      16.369  -0.147  -8.875  1.00  0.00     0.329 C 
BRANCH  15  16
ATOM     16  O   UNL     1      15.203   0.364  -9.529  1.00  0.00    -0.481 OA
BRANCH  16  17
ATOM     17  C   UNL     1      15.280   0.232 -10.891  1.00  0.00     0.155 A 
ATOM     18  C   UNL     1      14.949  -1.016 -11.430  1.00  0.00     0.051 A 
ATOM     19  C   UNL     1      15.700   1.267 -11.733  1.00  0.00     0.166 A 
ATOM     20  C   UNL     1      14.984  -1.203 -12.817  1.00  0.00     0.024 A 
ATOM     21  C   UNL     1      15.737   1.089 -13.114  1.00  0.00     0.063 A 
ATOM     22  C   UNL     1      15.366  -0.149 -13.650  1.00  0.00     0.044 A 
ATOM     23  F   UNL     1      16.070   2.452 -11.220  1.00  0.00    -0.203 F 
ATOM     24  Cl  UNL     1      15.378  -0.376 -15.357  1.00  0.00    -0.084 Cl
ENDBRANCH  16  17
ENDBRANCH  15  16
ENDBRANCH   2  15
TORSDOF 6
ENDMDL
MODEL 5
REMARK VINA RESULT:    -5.145      1.773      2.214
REMARK INTER + INTRA:          -7.513
REMARK INTER:                  -6.795
REMARK INTRA:                  -0.718
REMARK UNBOUND:                -0.563
REMARK SMILES COC(=O)c1sc(NC(=O)COc2ccc(Cl)cc2F)nc1C
REMARK SMILES IDX 8 1 9 2 10 3 7 5 5 6 6 7 22 8 21 9 23 10 3 11 4 12 2 13 1 14
REMARK SMILES IDX 11 15 12 16 13 17 14 18 19 19 15 20 18 21 16 22 20 23 17 24
REMARK H PARENT 8 4
ROOT
ATOM      1  N   UNL     1      16.939  -1.558  -6.873  1.00  0.00    -0.299 N 
ATOM      2  C   UNL     1      16.698  -2.812  -7.385  1.00  0.00     0.264 C 
ATOM      3  O   UNL     1      15.919  -3.653  -6.943  1.00  0.00    -0.271 OA
ATOM      4  H   UNL     1      17.525  -0.927  -7.408  1.00  0.00     0.172 HD
ENDROOT
BRANCH   1   5
ATOM      5  C   UNL     1      16.472  -1.035  -5.698  1.00  0.00     0.190 A 
ATOM      6  C   UNL     1      15.935  -0.454  -3.409  1.00  0.00     0.137 A 
ATOM      7  S   UNL     1      16.786  -1.731  -4.186  1.00  0.00    -0.089 S 
ATOM      8  C   UNL     1      15.465   0.429  -4.373  1.00  0.00     0.065 A 
ATOM      9  N   UNL     1      15.786   0.081  -5.679  1.00  0.00    -0.224 NA
ATOM     10  C   UNL     1      14.678   1.674  -4.172  1.00  0.00     0.069 C 
BRANCH   6  11
ATOM     11  C   UNL     1      15.820  -0.460  -1.967  1.00  0.00     0.350 C 
ATOM     12  O   UNL     1      14.921  -0.976  -1.314  1.00  0.00    -0.245 OA
BRANCH  11  13
ATOM     13  O   UNL     1      16.872   0.203  -1.405  1.00  0.00    -0.465 OA
ATOM     14  C   UNL     1      16.512   1.292  -0.554  1.00  0.00     0.282 C 
ENDBRANCH  11  13
ENDBRANCH   6  11
ENDBRANCH   1   5
BRANCH   2  15
ATOM     15  C   UNL     1      17.490  -3.090  -8.666  1.00  0.00     0.329 C 
BRANCH  15  16
ATOM     16  O   UNL     1      17.687  -1.878  -9.402  1.00  0.00    -0.481 OA
BRANCH  16  17
ATOM     17  C   UNL     1      16.873  -1.809 -10.503  1.00  0.00     0.155 A 
ATOM     18  C   UNL     1      17.180  -2.653 -11.575  1.00  0.00     0.051 A 
ATOM     19  C   UNL     1      15.796  -0.922 -10.599  1.00  0.00     0.166 A 
ATOM     20  C   UNL     1      16.370  -2.647 -12.716  1.00  0.00     0.024 A 
ATOM     21  C   UNL     1      14.984  -0.909 -11.730  1.00  0.00     0.063 A 
ATOM     22  C   UNL     1      15.272  -1.785 -12.783  1.00  0.00     0.044 A 
ATOM     23  F   UNL     1      15.526  -0.071  -9.595  1.00  0.00    -0.203 F 
ATOM     24  Cl  UNL     1      14.261  -1.803 -14.177  1.00  0.00    -0.084 Cl
ENDBRANCH  16  17
ENDBRANCH  15  16
ENDBRANCH   2  15
TORSDOF 6
ENDMDL
MODEL 6
REMARK VINA RESULT:    -5.139      1.950      2.433
REMARK INTER + INTRA:          -7.505
REMARK INTER:                  -6.909
REMARK INTRA:                  -0.595
REMARK UNBOUND:                -0.563
REMARK SMILES COC(=O)c1sc(NC(=O)COc2ccc(Cl)cc2F)nc1C
REMARK SMILES IDX 8 1 9 2 10 3 7 5 5 6 6 7 22 8 21 9 23 10 3 11 4 12 2 13 1 14
REMARK SMILES IDX 11 15 12 16 13 17 14 18 19 19 15 20 18 21 16 22 20 23 17 24
REMARK H PARENT 8 4
ROOT
ATOM      1  N   UNL     1      16.390  -0.307  -6.515  1.00  0.00    -0.299 N 
ATOM      2  C   UNL     1      16.105  -1.390  -7.312  1.00  0.00     0.264 C 
ATOM      3  O   UNL     1      15.744  -2.506  -6.944  1.00  0.00    -0.271 OA
ATOM      4  H   UNL     1      16.565   0.585  -6.962  1.00  0.00     0.172 HD
ENDROOT
BRANCH   1   5
ATOM      5  C   UNL     1      16.466  -0.276  -5.149  1.00  0.00     0.190 A 
ATOM      6  C   UNL     1      16.114  -0.323  -2.752  1.00  0.00     0.137 A 
ATOM      7  S   UNL     1      15.103  -0.357  -4.145  1.00  0.00    -0.089 S 
ATOM      8  C   UNL     1      17.441  -0.254  -3.158  1.00  0.00     0.065 A 
ATOM      9  N   UNL     1      17.623  -0.232  -4.535  1.00  0.00    -0.224 NA
ATOM     10  C   UNL     1      18.659  -0.203  -2.307  1.00  0.00     0.069 C 
BRANCH   6  11
ATOM     11  C   UNL     1      15.506  -0.364  -1.441  1.00  0.00     0.350 C 
ATOM     12  O   UNL     1      15.299   0.595  -0.708  1.00  0.00    -0.245 OA
BRANCH  11  13
ATOM     13  O   UNL     1      15.180  -1.648  -1.109  1.00  0.00    -0.465 OA
ATOM     14  C   UNL     1      16.213  -2.377  -0.443  1.00  0.00     0.282 C 
ENDBRANCH  11  13
ENDBRANCH   6  11
ENDBRANCH   1   5
BRANCH   2  15
ATOM     15  C   UNL     1      16.230  -1.073  -8.806  1.00  0.00     0.329 C 
BRANCH  15  16
ATOM     16  O   UNL     1      15.034  -0.448  -9.284  1.00  0.00    -0.481 OA
BRANCH  16  17
ATOM     17  C   UNL     1      15.266   0.319 -10.396  1.00  0.00     0.155 A 
ATOM     18  C   UNL     1      15.547   1.674 -10.187  1.00  0.00     0.051 A 
ATOM     19  C   UNL     1      15.200  -0.188 -11.698  1.00  0.00     0.166 A 
ATOM     20  C   UNL     1      15.818   2.502 -11.283  1.00  0.00     0.024 A 
ATOM     21  C   UNL     1      15.470   0.629 -12.793  1.00  0.00     0.063 A 
ATOM     22  C   UNL     1      15.790   1.973 -12.576  1.00  0.00     0.044 A 
ATOM     23  F   UNL     1      14.881  -1.475 -11.910  1.00  0.00    -0.203 F 
ATOM     24  Cl  UNL     1      16.154   2.990 -13.917  1.00  0.00    -0.084 Cl
ENDBRANCH  16  17
ENDBRANCH  15  16
ENDBRANCH   2  15
TORSDOF 6
ENDMDL
MODEL 7
REMARK VINA RESULT:    -5.097      5.994      9.358
REMARK INTER + INTRA:          -7.448
REMARK INTER:                  -6.994
REMARK INTRA:                  -0.454
REMARK UNBOUND:                -0.563
REMARK SMILES COC(=O)c1sc(NC(=O)COc2ccc(Cl)cc2F)nc1C
REMARK SMILES IDX 8 1 9 2 10 3 7 5 5 6 6 7 22 8 21 9 23 10 3 11 4 12 2 13 1 14
REMARK SMILES IDX 11 15 12 16 13 17 14 18 19 19 15 20 18 21 16 22 20 23 17 24
REMARK H PARENT 8 4
ROOT
ATOM      1  N   UNL     1      15.464   3.487 -11.827  1.00  0.00    -0.299 N 
ATOM      2  C   UNL     1      14.801   2.835 -10.813  1.00  0.00     0.264 C 
ATOM      3  O   UNL     1      13.613   2.944 -10.517  1.00  0.00    -0.271 OA
ATOM      4  H   UNL     1      16.418   3.213 -12.029  1.00  0.00     0.172 HD
ENDROOT
BRANCH   1   5
ATOM      5  C   UNL     1      14.983   4.487 -12.628  1.00  0.00     0.190 A 
ATOM      6  C   UNL     1      14.153   6.531 -13.630  1.00  0.00     0.137 A 
ATOM      7  S   UNL     1      14.493   5.995 -12.030  1.00  0.00    -0.089 S 
ATOM      8  C   UNL     1      14.444   5.505 -14.521  1.00  0.00     0.065 A 
ATOM      9  N   UNL     1      14.922   4.343 -13.929  1.00  0.00    -0.224 NA
ATOM     10  C   UNL     1      14.307   5.511 -16.002  1.00  0.00     0.069 C 
BRANCH   6  11
ATOM     11  C   UNL     1      13.645   7.870 -13.830  1.00  0.00     0.350 C 
ATOM     12  O   UNL     1      13.781   8.553 -14.838  1.00  0.00    -0.245 OA
BRANCH  11  13
ATOM     13  O   UNL     1      12.975   8.294 -12.720  1.00  0.00    -0.465 OA
ATOM     14  C   UNL     1      13.346   9.591 -12.252  1.00  0.00     0.282 C 
ENDBRANCH  11  13
ENDBRANCH   6  11
ENDBRANCH   1   5
BRANCH   2  15
ATOM     15  C   UNL     1      15.700   1.856 -10.054  1.00  0.00     0.329 C 
BRANCH  15  16
ATOM     16  O   UNL     1      15.004   0.631  -9.804  1.00  0.00    -0.481 OA
BRANCH  16  17
ATOM     17  C   UNL     1      15.249  -0.305 -10.775  1.00  0.00     0.155 A 
ATOM     18  C   UNL     1      14.317  -0.404 -11.814  1.00  0.00     0.051 A 
ATOM     19  C   UNL     1      16.352  -1.165 -10.743  1.00  0.00     0.166 A 
ATOM     20  C   UNL     1      14.528  -1.323 -12.848  1.00  0.00     0.024 A 
ATOM     21  C   UNL     1      16.569  -2.081 -11.768  1.00  0.00     0.063 A 
ATOM     22  C   UNL     1      15.656  -2.147 -12.826  1.00  0.00     0.044 A 
ATOM     23  F   UNL     1      17.224  -1.112  -9.722  1.00  0.00    -0.203 F 
ATOM     24  Cl  UNL     1      15.925  -3.255 -14.117  1.00  0.00    -0.084 Cl
ENDBRANCH  16  17
ENDBRANCH  15  16
ENDBRANCH   2  15
TORSDOF 6
ENDMDL
MODEL 8
REMARK VINA RESULT:    -5.080      1.659      2.114
REMARK INTER + INTRA:          -7.425
REMARK INTER:                  -7.008
REMARK INTRA:                  -0.417
REMARK UNBOUND:                -0.563
REMARK SMILES COC(=O)c1sc(NC(=O)COc2ccc(Cl)cc2F)nc1C
REMARK SMILES IDX 8 1 9 2 10 3 7 5 5 6 6 7 22 8 21 9 23 10 3 11 4 12 2 13 1 14
REMARK SMILES IDX 11 15 12 16 13 17 14 18 19 19 15 20 18 21 16 22 20 23 17 24
REMARK H PARENT 8 4
ROOT
ATOM      1  N   UNL     1      16.929  -0.310  -8.061  1.00  0.00    -0.299 N 
ATOM      2  C   UNL     1      16.215   0.139  -9.148  1.00  0.00     0.264 C 
ATOM      3  O   UNL     1      15.265   0.918  -9.138  1.00  0.00    -0.271 OA
ATOM      4  H   UNL     1      17.762  -0.862  -8.230  1.00  0.00     0.172 HD
ENDROOT
BRANCH   1   5
ATOM      5  C   UNL     1      16.654  -0.095  -6.738  1.00  0.00     0.190 A 
ATOM      6  C   UNL     1      16.123  -0.210  -4.377  1.00  0.00     0.137 A 
ATOM      7  S   UNL     1      16.133  -1.321  -5.691  1.00  0.00    -0.089 S 
ATOM      8  C   UNL     1      16.525   1.038  -4.837  1.00  0.00     0.065 A 
ATOM      9  N   UNL     1      16.829   1.083  -6.192  1.00  0.00    -0.224 NA
ATOM     10  C   UNL     1      16.666   2.299  -4.062  1.00  0.00     0.069 C 
BRANCH   6  11
ATOM     11  C   UNL     1      15.725  -0.674  -3.066  1.00  0.00     0.350 C 
ATOM     12  O   UNL     1      14.645  -1.171  -2.771  1.00  0.00    -0.245 OA
BRANCH  11  13
ATOM     13  O   UNL     1      16.735  -0.483  -2.168  1.00  0.00    -0.465 OA
ATOM     14  C   UNL     1      16.346   0.156  -0.952  1.00  0.00     0.282 C 
ENDBRANCH  11  13
ENDBRANCH   6  11
ENDBRANCH   1   5
BRANCH   2  15
ATOM     15  C   UNL     1      16.756  -0.404 -10.474  1.00  0.00     0.329 C 
BRANCH  15  16
ATOM     16  O   UNL     1      16.324  -1.754 -10.673  1.00  0.00    -0.481 OA
BRANCH  16  17
ATOM     17  C   UNL     1      15.892  -1.970 -11.956  1.00  0.00     0.155 A 
ATOM     18  C   UNL     1      16.653  -2.840 -12.745  1.00  0.00     0.051 A 
ATOM     19  C   UNL     1      14.767  -1.341 -12.497  1.00  0.00     0.166 A 
ATOM     20  C   UNL     1      16.248  -3.120 -14.055  1.00  0.00     0.024 A 
ATOM     21  C   UNL     1      14.356  -1.615 -13.799  1.00  0.00     0.063 A 
ATOM     22  C   UNL     1      15.098  -2.517 -14.570  1.00  0.00     0.044 A 
ATOM     23  F   UNL     1      14.061  -0.464 -11.763  1.00  0.00    -0.203 F 
ATOM     24  Cl  UNL     1      14.587  -2.889 -16.172  1.00  0.00    -0.084 Cl
ENDBRANCH  16  17
ENDBRANCH  15  16
ENDBRANCH   2  15
TORSDOF 6
ENDMDL
MODEL 9
REMARK VINA RESULT:    -4.966      4.398      8.730
REMARK INTER + INTRA:          -7.271
REMARK INTER:                  -6.663
REMARK INTRA:                  -0.608
REMARK UNBOUND:                -0.563
REMARK SMILES COC(=O)c1sc(NC(=O)COc2ccc(Cl)cc2F)nc1C
REMARK SMILES IDX 8 1 9 2 10 3 7 5 5 6 6 7 22 8 21 9 23 10 3 11 4 12 2 13 1 14
REMARK SMILES IDX 11 15 12 16 13 17 14 18 19 19 15 20 18 21 16 22 20 23 17 24
REMARK H PARENT 8 4
ROOT
ATOM      1  N   UNL     1      16.721  -0.467  -7.927  1.00  0.00    -0.299 N 
ATOM      2  C   UNL     1      16.129  -1.140  -6.884  1.00  0.00     0.264 C 
ATOM      3  O   UNL     1      14.949  -1.469  -6.791  1.00  0.00    -0.271 OA
ATOM      4  H   UNL     1      17.729  -0.364  -7.920  1.00  0.00     0.172 HD
ENDROOT
BRANCH   1   5
ATOM      5  C   UNL     1      16.104   0.096  -9.011  1.00  0.00     0.190 A 
ATOM      6  C   UNL     1      15.188   1.520 -10.744  1.00  0.00     0.137 A 
ATOM      7  S   UNL     1      15.966   1.771  -9.229  1.00  0.00    -0.089 S 
ATOM      8  C   UNL     1      15.089   0.154 -10.980  1.00  0.00     0.065 A 
ATOM      9  N   UNL     1      15.623  -0.645  -9.977  1.00  0.00    -0.224 NA
ATOM     10  C   UNL     1      14.492  -0.532 -12.156  1.00  0.00     0.069 C 
BRANCH   6  11
ATOM     11  C   UNL     1      14.767   2.667 -11.517  1.00  0.00     0.350 C 
ATOM     12  O   UNL     1      14.925   2.828 -12.720  1.00  0.00    -0.245 OA
BRANCH  11  13
ATOM     13  O   UNL     1      14.151   3.581 -10.711  1.00  0.00    -0.465 OA
ATOM     14  C   UNL     1      14.531   4.939 -10.941  1.00  0.00     0.282 C 
ENDBRANCH  11  13
ENDBRANCH   6  11
ENDBRANCH   1   5
BRANCH   2  15
ATOM     15  C   UNL     1      17.127  -1.523  -5.786  1.00  0.00     0.329 C 
BRANCH  15  16
ATOM     16  O   UNL     1      16.433  -1.988  -4.623  1.00  0.00    -0.481 OA
BRANCH  16  17
ATOM     17  C   UNL     1      16.482  -1.078  -3.599  1.00  0.00     0.155 A 
ATOM     18  C   UNL     1      17.557  -1.178  -2.709  1.00  0.00     0.051 A 
ATOM     19  C   UNL     1      15.500  -0.102  -3.401  1.00  0.00     0.166 A 
ATOM     20  C   UNL     1      17.674  -0.261  -1.659  1.00  0.00     0.024 A 
ATOM     21  C   UNL     1      15.611   0.816  -2.360  1.00  0.00     0.063 A 
ATOM     22  C   UNL     1      16.709   0.736  -1.497  1.00  0.00     0.044 A 
ATOM     23  F   UNL     1      14.438  -0.031  -4.221  1.00  0.00    -0.203 F 
ATOM     24  Cl  UNL     1      16.875   1.881  -0.221  1.00  0.00    -0.084 Cl
ENDBRANCH  16  17
ENDBRANCH  15  16
ENDBRANCH   2  15
TORSDOF 6
ENDMDL
