MODEL 1
REMARK VINA RESULT:    -5.972      0.000      0.000
REMARK INTER + INTRA:          -7.954
REMARK INTER:                  -7.368
REMARK INTRA:                  -0.586
REMARK UNBOUND:                -0.586
REMARK SMILES CC(=O)Nc1ccnc(C(=O)Nc2ccc(-c3nnco3)cc2)c1
REMARK SMILES IDX 5 1 6 2 7 3 8 4 9 5 24 6 4 7 2 8 3 9 1 10 10 12 11 13 12 14
REMARK SMILES IDX 13 16 14 17 23 18 15 19 22 20 16 21 17 22 18 23 21 24 19 25
REMARK SMILES IDX 20 26
REMARK H PARENT 4 11 12 15
ROOT
ATOM      1  C   UNL     1      15.801  -0.249  -9.931  1.00  0.00     0.045 A 
ATOM      2  C   UNL     1      15.976   1.132  -9.814  1.00  0.00     0.046 A 
ATOM      3  C   UNL     1      16.165   1.681  -8.555  1.00  0.00     0.114 A 
ATOM      4  N   UNL     1      16.191   0.956  -7.421  1.00  0.00    -0.251 NA
ATOM      5  C   UNL     1      16.017  -0.390  -7.561  1.00  0.00     0.130 A 
ATOM      6  C   UNL     1      15.821  -1.029  -8.779  1.00  0.00     0.060 A 
ENDROOT
BRANCH   1   7
ATOM      7  N   UNL     1      15.609  -0.762 -11.234  1.00  0.00    -0.326 N 
ATOM      8  C   UNL     1      14.433  -0.776 -11.965  1.00  0.00     0.221 C 
ATOM      9  O   UNL     1      13.340  -0.362 -11.600  1.00  0.00    -0.275 OA
ATOM     10  C   UNL     1      14.609  -1.411 -13.321  1.00  0.00     0.114 C 
ATOM     11  H   UNL     1      16.419  -1.176 -11.678  1.00  0.00     0.169 HD
ENDBRANCH   1   7
BRANCH   5  12
ATOM     12  C   UNL     1      16.047  -1.183  -6.282  1.00  0.00     0.274 C 
ATOM     13  O   UNL     1      15.862  -2.393  -6.298  1.00  0.00    -0.267 OA
ATOM     14  N   UNL     1      16.296  -0.393  -5.175  1.00  0.00    -0.321 N 
ATOM     15  H   UNL     1      16.419   0.594  -5.395  1.00  0.00     0.170 HD
BRANCH  14  16
ATOM     16  C   UNL     1      16.395  -0.782  -3.829  1.00  0.00     0.041 A 
ATOM     17  C   UNL     1      17.492  -1.458  -3.294  1.00  0.00     0.027 A 
ATOM     18  C   UNL     1      15.323  -0.466  -2.990  1.00  0.00     0.027 A 
ATOM     19  C   UNL     1      17.517  -1.813  -1.938  1.00  0.00     0.016 A 
ATOM     20  C   UNL     1      15.347  -0.821  -1.635  1.00  0.00     0.016 A 
ATOM     21  C   UNL     1      16.446  -1.500  -1.091  1.00  0.00     0.039 A 
BRANCH  21  22
ATOM     22  C   UNL     1      16.447  -1.858   0.321  1.00  0.00     0.247 A 
ATOM     23  N   UNL     1      16.772  -1.139   1.379  1.00  0.00    -0.108 NA
ATOM     24  O   UNL     1      16.056  -3.130   0.657  1.00  0.00    -0.423 OA
ATOM     25  N   UNL     1      16.596  -1.954   2.480  1.00  0.00    -0.116 NA
ATOM     26  C   UNL     1      16.178  -3.105   2.011  1.00  0.00     0.333 A 
ENDBRANCH  21  22
ENDBRANCH  14  16
ENDBRANCH   5  12
TORSDOF 4
ENDMDL
MODEL 2
REMARK VINA RESULT:    -5.777      2.383     10.044
REMARK INTER + INTRA:          -7.714
REMARK INTER:                  -7.183
REMARK INTRA:                  -0.531
REMARK UNBOUND:                -0.586
REMARK SMILES CC(=O)Nc1ccnc(C(=O)Nc2ccc(-c3nnco3)cc2)c1
REMARK SMILES IDX 5 1 6 2 7 3 8 4 9 5 24 6 4 7 2 8 3 9 1 10 10 12 11 13 12 14
REMARK SMILES IDX 13 16 14 17 23 18 15 19 22 20 16 21 17 22 18 23 21 24 19 25
REMARK SMILES IDX 20 26
REMARK H PARENT 4 11 12 15
ROOT
ATOM      1  C   UNL     1      16.414  -0.246  -3.845  1.00  0.00     0.045 A 
ATOM      2  C   UNL     1      16.353   1.137  -4.036  1.00  0.00     0.046 A 
ATOM      3  C   UNL     1      16.144   1.631  -5.314  1.00  0.00     0.114 A 
ATOM      4  N   UNL     1      15.992   0.850  -6.400  1.00  0.00    -0.251 NA
ATOM      5  C   UNL     1      16.056  -0.497  -6.190  1.00  0.00     0.130 A 
ATOM      6  C   UNL     1      16.263  -1.083  -4.946  1.00  0.00     0.060 A 
ENDROOT
BRANCH   1   7
ATOM      7  N   UNL     1      16.632  -0.702  -2.526  1.00  0.00    -0.326 N 
ATOM      8  C   UNL     1      15.714  -1.309  -1.686  1.00  0.00     0.221 C 
ATOM      9  O   UNL     1      14.538  -1.541  -1.933  1.00  0.00    -0.275 OA
ATOM     10  C   UNL     1      16.308  -1.658  -0.344  1.00  0.00     0.114 C 
ATOM     11  H   UNL     1      17.560  -0.559  -2.149  1.00  0.00     0.169 HD
ENDBRANCH   1   7
BRANCH   5  12
ATOM     12  C   UNL     1      15.887  -1.353  -7.415  1.00  0.00     0.274 C 
ATOM     13  O   UNL     1      15.671  -2.553  -7.309  1.00  0.00    -0.267 OA
ATOM     14  N   UNL     1      16.007  -0.628  -8.588  1.00  0.00    -0.321 N 
ATOM     15  H   UNL     1      16.189   0.362  -8.440  1.00  0.00     0.170 HD
BRANCH  14  16
ATOM     16  C   UNL     1      15.908  -1.087  -9.911  1.00  0.00     0.041 A 
ATOM     17  C   UNL     1      16.744  -2.059 -10.462  1.00  0.00     0.027 A 
ATOM     18  C   UNL     1      14.909  -0.526 -10.711  1.00  0.00     0.027 A 
ATOM     19  C   UNL     1      16.583  -2.465 -11.794  1.00  0.00     0.016 A 
ATOM     20  C   UNL     1      14.748  -0.931 -12.042  1.00  0.00     0.016 A 
ATOM     21  C   UNL     1      15.583  -1.907 -12.602  1.00  0.00     0.039 A 
BRANCH  21  22
ATOM     22  C   UNL     1      15.395  -2.311 -13.988  1.00  0.00     0.247 A 
ATOM     23  N   UNL     1      14.810  -1.676 -14.986  1.00  0.00    -0.108 NA
ATOM     24  O   UNL     1      15.885  -3.536 -14.368  1.00  0.00    -0.423 OA
ATOM     25  N   UNL     1      14.904  -2.501 -16.089  1.00  0.00    -0.116 NA
ATOM     26  C   UNL     1      15.539  -3.574 -15.682  1.00  0.00     0.333 A 
ENDBRANCH  21  22
ENDBRANCH  14  16
ENDBRANCH   5  12
TORSDOF 4
ENDMDL
MODEL 3
REMARK VINA RESULT:    -5.756     13.626     16.734
REMARK INTER + INTRA:          -7.688
REMARK INTER:                  -7.241
REMARK INTRA:                  -0.446
REMARK UNBOUND:                -0.586
REMARK SMILES CC(=O)Nc1ccnc(C(=O)Nc2ccc(-c3nnco3)cc2)c1
REMARK SMILES IDX 5 1 6 2 7 3 8 4 9 5 24 6 4 7 2 8 3 9 1 10 10 12 11 13 12 14
REMARK SMILES IDX 13 16 14 17 23 18 15 19 22 20 16 21 17 22 18 23 21 24 19 25
REMARK SMILES IDX 20 26
REMARK H PARENT 4 11 12 15
ROOT
ATOM      1  C   UNL     1       4.666 -11.606   1.913  1.00  0.00     0.045 A 
ATOM      2  C   UNL     1       5.114 -11.018   3.099  1.00  0.00     0.046 A 
ATOM      3  C   UNL     1       6.406 -10.519   3.157  1.00  0.00     0.114 A 
ATOM      4  N   UNL     1       7.270 -10.565   2.126  1.00  0.00    -0.251 NA
ATOM      5  C   UNL     1       6.811 -11.144   0.978  1.00  0.00     0.130 A 
ATOM      6  C   UNL     1       5.534 -11.671   0.828  1.00  0.00     0.060 A 
ENDROOT
BRANCH   1   7
ATOM      7  N   UNL     1       3.344 -12.102   1.904  1.00  0.00    -0.326 N 
ATOM      8  C   UNL     1       2.353 -11.831   0.976  1.00  0.00     0.221 C 
ATOM      9  O   UNL     1       2.442 -11.090   0.005  1.00  0.00    -0.275 OA
ATOM     10  C   UNL     1       1.060 -12.540   1.293  1.00  0.00     0.114 C 
ATOM     11  H   UNL     1       3.089 -12.717   2.666  1.00  0.00     0.169 HD
ENDBRANCH   1   7
BRANCH   5  12
ATOM     12  C   UNL     1       7.791 -11.188  -0.162  1.00  0.00     0.274 C 
ATOM     13  O   UNL     1       8.984 -10.997   0.037  1.00  0.00    -0.267 OA
ATOM     14  N   UNL     1       7.181 -11.454  -1.375  1.00  0.00    -0.321 N 
ATOM     15  H   UNL     1       6.173 -11.577  -1.308  1.00  0.00     0.170 HD
BRANCH  14  16
ATOM     16  C   UNL     1       7.773 -11.569  -2.643  1.00  0.00     0.041 A 
ATOM     17  C   UNL     1       8.555 -10.574  -3.230  1.00  0.00     0.027 A 
ATOM     18  C   UNL     1       7.556 -12.758  -3.346  1.00  0.00     0.027 A 
ATOM     19  C   UNL     1       9.113 -10.764  -4.502  1.00  0.00     0.016 A 
ATOM     20  C   UNL     1       8.112 -12.948  -4.617  1.00  0.00     0.016 A 
ATOM     21  C   UNL     1       8.899 -11.953  -5.213  1.00  0.00     0.039 A 
BRANCH  21  22
ATOM     22  C   UNL     1       9.467 -12.176  -6.535  1.00  0.00     0.247 A 
ATOM     23  N   UNL     1      10.708 -12.450  -6.892  1.00  0.00    -0.108 NA
ATOM     24  O   UNL     1       8.620 -12.101  -7.614  1.00  0.00    -0.423 OA
ATOM     25  N   UNL     1      10.707 -12.566  -8.268  1.00  0.00    -0.116 NA
ATOM     26  C   UNL     1       9.469 -12.355  -8.645  1.00  0.00     0.333 A 
ENDBRANCH  21  22
ENDBRANCH  14  16
ENDBRANCH   5  12
TORSDOF 4
ENDMDL
MODEL 4
REMARK VINA RESULT:    -5.684      1.741      2.136
REMARK INTER + INTRA:          -7.599
REMARK INTER:                  -6.951
REMARK INTRA:                  -0.648
REMARK UNBOUND:                -0.586
REMARK SMILES CC(=O)Nc1ccnc(C(=O)Nc2ccc(-c3nnco3)cc2)c1
REMARK SMILES IDX 5 1 6 2 7 3 8 4 9 5 24 6 4 7 2 8 3 9 1 10 10 12 11 13 12 14
REMARK SMILES IDX 13 16 14 17 23 18 15 19 22 20 16 21 17 22 18 23 21 24 19 25
REMARK SMILES IDX 20 26
REMARK H PARENT 4 11 12 15
ROOT
ATOM      1  C   UNL     1      16.001   1.282 -10.576  1.00  0.00     0.045 A 
ATOM      2  C   UNL     1      16.119   2.584 -11.070  1.00  0.00     0.046 A 
ATOM      3  C   UNL     1      16.287   3.630 -10.175  1.00  0.00     0.114 A 
ATOM      4  N   UNL     1      16.345   3.468  -8.840  1.00  0.00    -0.251 NA
ATOM      5  C   UNL     1      16.227   2.188  -8.381  1.00  0.00     0.130 A 
ATOM      6  C   UNL     1      16.056   1.079  -9.201  1.00  0.00     0.060 A 
ENDROOT
BRANCH   1   7
ATOM      7  N   UNL     1      15.829   0.249 -11.524  1.00  0.00    -0.326 N 
ATOM      8  C   UNL     1      14.660  -0.432 -11.819  1.00  0.00     0.221 C 
ATOM      9  O   UNL     1      13.568  -0.273 -11.290  1.00  0.00    -0.275 OA
ATOM     10  C   UNL     1      14.860  -1.475 -12.890  1.00  0.00     0.114 C 
ATOM     11  H   UNL     1      16.654  -0.031 -12.039  1.00  0.00     0.169 HD
ENDBRANCH   1   7
BRANCH   5  12
ATOM     12  C   UNL     1      16.292   2.028  -6.887  1.00  0.00     0.274 C 
ATOM     13  O   UNL     1      16.286   3.010  -6.157  1.00  0.00    -0.267 OA
ATOM     14  N   UNL     1      16.358   0.702  -6.499  1.00  0.00    -0.321 N 
ATOM     15  H   UNL     1      16.352   0.046  -7.278  1.00  0.00     0.170 HD
BRANCH  14  16
ATOM     16  C   UNL     1      16.429   0.175  -5.199  1.00  0.00     0.041 A 
ATOM     17  C   UNL     1      17.624  -0.042  -4.512  1.00  0.00     0.027 A 
ATOM     18  C   UNL     1      15.222  -0.147  -4.571  1.00  0.00     0.027 A 
ATOM     19  C   UNL     1      17.613  -0.573  -3.214  1.00  0.00     0.016 A 
ATOM     20  C   UNL     1      15.211  -0.677  -3.275  1.00  0.00     0.016 A 
ATOM     21  C   UNL     1      16.407  -0.898  -2.579  1.00  0.00     0.039 A 
BRANCH  21  22
ATOM     22  C   UNL     1      16.367  -1.450  -1.232  1.00  0.00     0.247 A 
ATOM     23  N   UNL     1      16.344  -0.837  -0.063  1.00  0.00    -0.108 NA
ATOM     24  O   UNL     1      16.349  -2.816  -1.103  1.00  0.00    -0.423 OA
ATOM     25  N   UNL     1      16.310  -1.825   0.901  1.00  0.00    -0.116 NA
ATOM     26  C   UNL     1      16.314  -2.963   0.249  1.00  0.00     0.333 A 
ENDBRANCH  21  22
ENDBRANCH  14  16
ENDBRANCH   5  12
TORSDOF 4
ENDMDL
MODEL 5
REMARK VINA RESULT:    -5.577     19.959     20.851
REMARK INTER + INTRA:          -7.467
REMARK INTER:                  -6.933
REMARK INTRA:                  -0.534
REMARK UNBOUND:                -0.586
REMARK SMILES CC(=O)Nc1ccnc(C(=O)Nc2ccc(-c3nnco3)cc2)c1
REMARK SMILES IDX 5 1 6 2 7 3 8 4 9 5 24 6 4 7 2 8 3 9 1 10 10 12 11 13 12 14
REMARK SMILES IDX 13 16 14 17 23 18 15 19 22 20 16 21 17 22 18 23 21 24 19 25
REMARK SMILES IDX 20 26
REMARK H PARENT 4 11 12 15
ROOT
ATOM      1  C   UNL     1      -2.553 -10.683 -12.051  1.00  0.00     0.045 A 
ATOM      2  C   UNL     1      -3.850 -11.042 -12.429  1.00  0.00     0.046 A 
ATOM      3  C   UNL     1      -4.529 -11.993 -11.683  1.00  0.00     0.114 A 
ATOM      4  N   UNL     1      -4.010 -12.602 -10.600  1.00  0.00    -0.251 NA
ATOM      5  C   UNL     1      -2.742 -12.236 -10.251  1.00  0.00     0.130 A 
ATOM      6  C   UNL     1      -1.986 -11.294 -10.938  1.00  0.00     0.060 A 
ENDROOT
BRANCH   1   7
ATOM      7  N   UNL     1      -1.900  -9.712 -12.843  1.00  0.00    -0.326 N 
ATOM      8  C   UNL     1      -0.893  -9.925 -13.768  1.00  0.00     0.221 C 
ATOM      9  O   UNL     1      -0.372 -10.996 -14.050  1.00  0.00    -0.275 OA
ATOM     10  C   UNL     1      -0.436  -8.645 -14.422  1.00  0.00     0.114 C 
ATOM     11  H   UNL     1      -2.195  -8.753 -12.712  1.00  0.00     0.169 HD
ENDBRANCH   1   7
BRANCH   5  12
ATOM     12  C   UNL     1      -2.179 -12.929  -9.040  1.00  0.00     0.274 C 
ATOM     13  O   UNL     1      -1.938 -14.129  -9.068  1.00  0.00    -0.267 OA
ATOM     14  N   UNL     1      -1.993 -12.066  -7.975  1.00  0.00    -0.321 N 
ATOM     15  H   UNL     1      -2.264 -11.105  -8.174  1.00  0.00     0.170 HD
BRANCH  14  16
ATOM     16  C   UNL     1      -1.491 -12.354  -6.696  1.00  0.00     0.041 A 
ATOM     17  C   UNL     1      -2.077 -13.265  -5.817  1.00  0.00     0.027 A 
ATOM     18  C   UNL     1      -0.334 -11.679  -6.295  1.00  0.00     0.027 A 
ATOM     19  C   UNL     1      -1.514 -13.499  -4.554  1.00  0.00     0.016 A 
ATOM     20  C   UNL     1       0.227 -11.912  -5.033  1.00  0.00     0.016 A 
ATOM     21  C   UNL     1      -0.356 -12.826  -4.145  1.00  0.00     0.039 A 
BRANCH  21  22
ATOM     22  C   UNL     1       0.248 -13.050  -2.839  1.00  0.00     0.247 A 
ATOM     23  N   UNL     1       1.414 -13.584  -2.522  1.00  0.00    -0.108 NA
ATOM     24  O   UNL     1      -0.465 -12.663  -1.732  1.00  0.00    -0.423 OA
ATOM     25  N   UNL     1       1.497 -13.560  -1.144  1.00  0.00    -0.116 NA
ATOM     26  C   UNL     1       0.381 -13.015  -0.726  1.00  0.00     0.333 A 
ENDBRANCH  21  22
ENDBRANCH  14  16
ENDBRANCH   5  12
TORSDOF 4
ENDMDL
MODEL 6
REMARK VINA RESULT:    -5.542     11.819     14.216
REMARK INTER + INTRA:          -7.424
REMARK INTER:                  -7.096
REMARK INTRA:                  -0.328
REMARK UNBOUND:                -0.586
REMARK SMILES CC(=O)Nc1ccnc(C(=O)Nc2ccc(-c3nnco3)cc2)c1
REMARK SMILES IDX 5 1 6 2 7 3 8 4 9 5 24 6 4 7 2 8 3 9 1 10 10 12 11 13 12 14
REMARK SMILES IDX 13 16 14 17 23 18 15 19 22 20 16 21 17 22 18 23 21 24 19 25
REMARK SMILES IDX 20 26
REMARK H PARENT 4 11 12 15
ROOT
ATOM      1  C   UNL     1      13.574  -9.490  -1.438  1.00  0.00     0.045 A 
ATOM      2  C   UNL     1      13.942  -9.523  -0.091  1.00  0.00     0.046 A 
ATOM      3  C   UNL     1      12.969  -9.768   0.866  1.00  0.00     0.114 A 
ATOM      4  N   UNL     1      11.672  -9.978   0.575  1.00  0.00    -0.251 NA
ATOM      5  C   UNL     1      11.336  -9.939  -0.748  1.00  0.00     0.130 A 
ATOM      6  C   UNL     1      12.241  -9.701  -1.775  1.00  0.00     0.060 A 
ENDROOT
BRANCH   1   7
ATOM      7  N   UNL     1      14.599  -9.234  -2.377  1.00  0.00    -0.326 N 
ATOM      8  C   UNL     1      15.125  -8.003  -2.729  1.00  0.00     0.221 C 
ATOM      9  O   UNL     1      14.778  -6.910  -2.303  1.00  0.00    -0.275 OA
ATOM     10  C   UNL     1      16.209  -8.121  -3.772  1.00  0.00     0.114 C 
ATOM     11  H   UNL     1      14.984 -10.040  -2.852  1.00  0.00     0.169 HD
ENDBRANCH   1   7
BRANCH   5  12
ATOM     12  C   UNL     1       9.882 -10.174  -1.053  1.00  0.00     0.274 C 
ATOM     13  O   UNL     1       9.437  -9.941  -2.170  1.00  0.00    -0.267 OA
ATOM     14  N   UNL     1       9.182 -10.653   0.039  1.00  0.00    -0.321 N 
ATOM     15  H   UNL     1       9.754 -10.772   0.873  1.00  0.00     0.170 HD
BRANCH  14  16
ATOM     16  C   UNL     1       7.820 -10.984   0.126  1.00  0.00     0.041 A 
ATOM     17  C   UNL     1       7.069 -11.477  -0.941  1.00  0.00     0.027 A 
ATOM     18  C   UNL     1       7.194 -10.803   1.363  1.00  0.00     0.027 A 
ATOM     19  C   UNL     1       5.711 -11.785  -0.775  1.00  0.00     0.016 A 
ATOM     20  C   UNL     1       5.838 -11.110   1.530  1.00  0.00     0.016 A 
ATOM     21  C   UNL     1       5.078 -11.605   0.462  1.00  0.00     0.039 A 
BRANCH  21  22
ATOM     22  C   UNL     1       3.669 -11.917   0.661  1.00  0.00     0.247 A 
ATOM     23  N   UNL     1       2.591 -11.304   0.209  1.00  0.00    -0.108 NA
ATOM     24  O   UNL     1       3.361 -13.012   1.430  1.00  0.00    -0.423 OA
ATOM     25  N   UNL     1       1.505 -12.008   0.691  1.00  0.00    -0.116 NA
ATOM     26  C   UNL     1       2.001 -12.995   1.397  1.00  0.00     0.333 A 
ENDBRANCH  21  22
ENDBRANCH  14  16
ENDBRANCH   5  12
TORSDOF 4
ENDMDL
MODEL 7
REMARK VINA RESULT:    -5.521      1.758      2.536
REMARK INTER + INTRA:          -7.397
REMARK INTER:                  -6.753
REMARK INTRA:                  -0.645
REMARK UNBOUND:                -0.586
REMARK SMILES CC(=O)Nc1ccnc(C(=O)Nc2ccc(-c3nnco3)cc2)c1
REMARK SMILES IDX 5 1 6 2 7 3 8 4 9 5 24 6 4 7 2 8 3 9 1 10 10 12 11 13 12 14
REMARK SMILES IDX 13 16 14 17 23 18 15 19 22 20 16 21 17 22 18 23 21 24 19 25
REMARK SMILES IDX 20 26
REMARK H PARENT 4 11 12 15
ROOT
ATOM      1  C   UNL     1      15.964   1.462 -10.131  1.00  0.00     0.045 A 
ATOM      2  C   UNL     1      16.084   0.674 -11.279  1.00  0.00     0.046 A 
ATOM      3  C   UNL     1      16.172  -0.703 -11.143  1.00  0.00     0.114 A 
ATOM      4  N   UNL     1      16.149  -1.339  -9.957  1.00  0.00    -0.251 NA
ATOM      5  C   UNL     1      16.033  -0.548  -8.850  1.00  0.00     0.130 A 
ATOM      6  C   UNL     1      15.938   0.838  -8.889  1.00  0.00     0.060 A 
ENDROOT
BRANCH   1   7
ATOM      7  N   UNL     1      15.880   2.860 -10.320  1.00  0.00    -0.326 N 
ATOM      8  C   UNL     1      14.742   3.603 -10.583  1.00  0.00     0.221 C 
ATOM      9  O   UNL     1      13.603   3.175 -10.720  1.00  0.00    -0.275 OA
ATOM     10  C   UNL     1      15.040   5.075 -10.727  1.00  0.00     0.114 C 
ATOM     11  H   UNL     1      16.750   3.373 -10.267  1.00  0.00     0.169 HD
ENDBRANCH   1   7
BRANCH   5  12
ATOM     12  C   UNL     1      16.011  -1.276  -7.534  1.00  0.00     0.274 C 
ATOM     13  O   UNL     1      15.734  -2.467  -7.488  1.00  0.00    -0.267 OA
ATOM     14  N   UNL     1      16.326  -0.452  -6.468  1.00  0.00    -0.321 N 
ATOM     15  H   UNL     1      16.522   0.510  -6.737  1.00  0.00     0.170 HD
BRANCH  14  16
ATOM     16  C   UNL     1      16.404  -0.780  -5.105  1.00  0.00     0.041 A 
ATOM     17  C   UNL     1      17.506  -1.401  -4.516  1.00  0.00     0.027 A 
ATOM     18  C   UNL     1      15.304  -0.459  -4.304  1.00  0.00     0.027 A 
ATOM     19  C   UNL     1      17.509  -1.697  -3.145  1.00  0.00     0.016 A 
ATOM     20  C   UNL     1      15.307  -0.755  -2.935  1.00  0.00     0.016 A 
ATOM     21  C   UNL     1      16.410  -1.378  -2.337  1.00  0.00     0.039 A 
BRANCH  21  22
ATOM     22  C   UNL     1      16.388  -1.674  -0.911  1.00  0.00     0.247 A 
ATOM     23  N   UNL     1      16.429  -0.859   0.127  1.00  0.00    -0.108 NA
ATOM     24  O   UNL     1      16.312  -2.992  -0.535  1.00  0.00    -0.423 OA
ATOM     25  N   UNL     1      16.380  -1.654   1.255  1.00  0.00    -0.116 NA
ATOM     26  C   UNL     1      16.312  -2.889   0.822  1.00  0.00     0.333 A 
ENDBRANCH  21  22
ENDBRANCH  14  16
ENDBRANCH   5  12
TORSDOF 4
ENDMDL
MODEL 8
REMARK VINA RESULT:    -5.483     16.048     18.663
REMARK INTER + INTRA:          -7.351
REMARK INTER:                  -6.772
REMARK INTRA:                  -0.579
REMARK UNBOUND:                -0.586
REMARK SMILES CC(=O)Nc1ccnc(C(=O)Nc2ccc(-c3nnco3)cc2)c1
REMARK SMILES IDX 5 1 6 2 7 3 8 4 9 5 24 6 4 7 2 8 3 9 1 10 10 12 11 13 12 14
REMARK SMILES IDX 13 16 14 17 23 18 15 19 22 20 16 21 17 22 18 23 21 24 19 25
REMARK SMILES IDX 20 26
REMARK H PARENT 4 11 12 15
ROOT
ATOM      1  C   UNL     1      -0.537 -13.111   1.160  1.00  0.00     0.045 A 
ATOM      2  C   UNL     1      -0.232 -14.109   2.089  1.00  0.00     0.046 A 
ATOM      3  C   UNL     1       1.092 -14.314   2.445  1.00  0.00     0.114 A 
ATOM      4  N   UNL     1       2.118 -13.601   1.945  1.00  0.00    -0.251 NA
ATOM      5  C   UNL     1       1.796 -12.632   1.039  1.00  0.00     0.130 A 
ATOM      6  C   UNL     1       0.499 -12.356   0.622  1.00  0.00     0.060 A 
ENDROOT
BRANCH   1   7
ATOM      7  N   UNL     1      -1.900 -12.941   0.826  1.00  0.00    -0.326 N 
ATOM      8  C   UNL     1      -2.783 -12.014   1.352  1.00  0.00     0.221 C 
ATOM      9  O   UNL     1      -2.542 -11.186   2.221  1.00  0.00    -0.275 OA
ATOM     10  C   UNL     1      -4.163 -12.133   0.755  1.00  0.00     0.114 C 
ATOM     11  H   UNL     1      -2.275 -13.575   0.132  1.00  0.00     0.169 HD
ENDBRANCH   1   7
BRANCH   5  12
ATOM     12  C   UNL     1       2.956 -11.848   0.489  1.00  0.00     0.274 C 
ATOM     13  O   UNL     1       2.762 -10.862  -0.210  1.00  0.00    -0.267 OA
ATOM     14  N   UNL     1       4.178 -12.375   0.866  1.00  0.00    -0.321 N 
ATOM     15  H   UNL     1       4.103 -13.205   1.452  1.00  0.00     0.170 HD
BRANCH  14  16
ATOM     16  C   UNL     1       5.464 -11.913   0.546  1.00  0.00     0.041 A 
ATOM     17  C   UNL     1       6.308 -11.269   1.451  1.00  0.00     0.027 A 
ATOM     18  C   UNL     1       5.911 -12.118  -0.763  1.00  0.00     0.027 A 
ATOM     19  C   UNL     1       7.581 -10.836   1.055  1.00  0.00     0.016 A 
ATOM     20  C   UNL     1       7.183 -11.685  -1.160  1.00  0.00     0.016 A 
ATOM     21  C   UNL     1       8.035 -11.037  -0.255  1.00  0.00     0.039 A 
BRANCH  21  22
ATOM     22  C   UNL     1       9.353 -10.597  -0.693  1.00  0.00     0.247 A 
ATOM     23  N   UNL     1      10.506 -10.599  -0.050  1.00  0.00    -0.108 NA
ATOM     24  O   UNL     1       9.468 -10.095  -1.965  1.00  0.00    -0.423 OA
ATOM     25  N   UNL     1      11.443 -10.076  -0.918  1.00  0.00    -0.116 NA
ATOM     26  C   UNL     1      10.793  -9.796  -2.022  1.00  0.00     0.333 A 
ENDBRANCH  21  22
ENDBRANCH  14  16
ENDBRANCH   5  12
TORSDOF 4
ENDMDL
MODEL 9
REMARK VINA RESULT:    -5.392      4.193      9.015
REMARK INTER + INTRA:          -7.238
REMARK INTER:                  -6.623
REMARK INTRA:                  -0.615
REMARK UNBOUND:                -0.586
REMARK SMILES CC(=O)Nc1ccnc(C(=O)Nc2ccc(-c3nnco3)cc2)c1
REMARK SMILES IDX 5 1 6 2 7 3 8 4 9 5 24 6 4 7 2 8 3 9 1 10 10 12 11 13 12 14
REMARK SMILES IDX 13 16 14 17 23 18 15 19 22 20 16 21 17 22 18 23 21 24 19 25
REMARK SMILES IDX 20 26
REMARK H PARENT 4 11 12 15
ROOT
ATOM      1  C   UNL     1      16.632  -0.328  -3.470  1.00  0.00     0.045 A 
ATOM      2  C   UNL     1      16.630   1.045  -3.731  1.00  0.00     0.046 A 
ATOM      3  C   UNL     1      16.356   1.485  -5.017  1.00  0.00     0.114 A 
ATOM      4  N   UNL     1      16.086   0.661  -6.046  1.00  0.00    -0.251 NA
ATOM      5  C   UNL     1      16.095  -0.676  -5.768  1.00  0.00     0.130 A 
ATOM      6  C   UNL     1      16.359  -1.208  -4.511  1.00  0.00     0.060 A 
ENDROOT
BRANCH   1   7
ATOM      7  N   UNL     1      16.920  -0.728  -2.146  1.00  0.00    -0.326 N 
ATOM      8  C   UNL     1      16.037  -1.254  -1.219  1.00  0.00     0.221 C 
ATOM      9  O   UNL     1      14.838  -1.445  -1.376  1.00  0.00    -0.275 OA
ATOM     10  C   UNL     1      16.705  -1.562   0.098  1.00  0.00     0.114 C 
ATOM     11  H   UNL     1      17.876  -0.607  -1.838  1.00  0.00     0.169 HD
ENDBRANCH   1   7
BRANCH   5  12
ATOM     12  C   UNL     1      15.794  -1.581  -6.931  1.00  0.00     0.274 C 
ATOM     13  O   UNL     1      14.920  -1.287  -7.736  1.00  0.00    -0.267 OA
ATOM     14  N   UNL     1      16.594  -2.709  -6.944  1.00  0.00    -0.321 N 
ATOM     15  H   UNL     1      17.257  -2.751  -6.172  1.00  0.00     0.170 HD
BRANCH  14  16
ATOM     16  C   UNL     1      16.598  -3.766  -7.869  1.00  0.00     0.041 A 
ATOM     17  C   UNL     1      17.089  -3.659  -9.170  1.00  0.00     0.027 A 
ATOM     18  C   UNL     1      16.073  -4.991  -7.445  1.00  0.00     0.027 A 
ATOM     19  C   UNL     1      17.058  -4.761 -10.036  1.00  0.00     0.016 A 
ATOM     20  C   UNL     1      16.041  -6.092  -8.310  1.00  0.00     0.016 A 
ATOM     21  C   UNL     1      16.533  -5.992  -9.618  1.00  0.00     0.039 A 
BRANCH  21  22
ATOM     22  C   UNL     1      16.489  -7.152 -10.498  1.00  0.00     0.247 A 
ATOM     23  N   UNL     1      16.407  -8.437 -10.206  1.00  0.00    -0.108 NA
ATOM     24  O   UNL     1      16.536  -6.928 -11.851  1.00  0.00    -0.423 OA
ATOM     25  N   UNL     1      16.399  -9.115 -11.408  1.00  0.00    -0.116 NA
ATOM     26  C   UNL     1      16.476  -8.196 -12.340  1.00  0.00     0.333 A 
ENDBRANCH  21  22
ENDBRANCH  14  16
ENDBRANCH   5  12
TORSDOF 4
ENDMDL
